[Molden Format]
[Atoms] Angs
 C     1  6    -9.712380     0.606080    -5.444060
 C     2  6    -9.402920    -0.700440    -4.954410
 C     3  6    -9.228200    -0.637790    -3.642230
 C     4  6    -9.419210     0.779080    -3.142080
 C     5  6    -9.699280     1.478200    -4.447420
 C     6  6    -8.172930     1.309900    -2.510000
 C     7  6    -8.251480     2.178370    -1.397240
 C     8  6    -6.886650     1.018830    -3.046170
 C     9  6    -5.745560     1.541540    -2.440960
 C    10  6    -5.829560     2.390050    -1.327380
 C    11  6    -7.090910     2.687910    -0.808220
 H    12  1    -9.888770     0.860100    -6.487010
 H    13  1    -9.871650     2.536730    -4.555220
 H    14  1    -9.309680    -1.592340    -5.536560
 H    15  1    -8.977470    -1.498770    -3.015740
 H    16  1    -6.757730     0.388370    -3.893980
 H    17  1    -4.777450     1.272280    -2.852150
 H    18  1    -4.940290     2.793480    -0.863710
 H    19  1    -7.170360     3.337310     0.047470
 H    20  1    -9.206040     2.453760    -0.968520
