[Molden Format]
made by pyscf v[2.8.0]
[Atoms] (AU)
C   1   6     5.08484009604636     0.00000000000000    -3.23739073536746
C   2   6     6.56365510140060     0.00000000000000    -1.02295863999676
C   3   6     5.33877695732272     0.00000000000000     1.27443488888631
C   4   6     2.67360946541949     0.00000000000000     1.33588575889537
C   5   6     1.37657874331653     0.00000000000000    -1.01876420389067
N   6   7     2.60028865870421     0.00000000000000    -3.24296448257186
H   7   1     6.01436103884139     0.00000000000000    -5.09106183033888
H   8   1     8.62370772177847     0.00000000000000    -1.14590573344186
H   9   1     6.39599765476613     0.00000000000000     3.05003213799394
C   10   6    -1.37657874331653     0.00000000000000    -1.01876420389067
C   11   6    -2.67360946541949     0.00000000000000     1.33588575889537
C   12   6    -1.28507612566635     0.00000000000000     3.66018785395657
C   13   6     1.28507612566635     0.00000000000000     3.66018785395657
H   14   1    -2.33697346461686     0.00000000000000     5.43850517484790
H   15   1     2.33697346461686     0.00000000000000     5.43850517484790
N   16   7    -2.60028865870421     0.00000000000000    -3.24296448257186
C   17   6    -5.08484009604636     0.00000000000000    -3.23739073536746
C   18   6    -6.56365510140060     0.00000000000000    -1.02295863999676
C   19   6    -5.33877695732272     0.00000000000000     1.27443488888631
H   20   1    -8.62370772177847     0.00000000000000    -1.14590573344186
H   21   1    -6.39599765476613     0.00000000000000     3.05003213799394
H   22   1    -6.01436103884139     0.00000000000000    -5.09106183033888
[GTO]
1 0
 s    1 1.00
      0.13202925350056                   1

2 0
 s    1 1.00
      0.13202925350056                   1

3 0
 s    1 1.00
      0.13202925350056                   1

4 0
 s    1 1.00
      0.13202925350056                   1

5 0
 s    1 1.00
      0.13202925350056                   1

6 0
 s    1 1.00
      0.19008710047035                   1

7 0
 s    1 1.00
       0.1999828038466                   1

8 0
 s    1 1.00
       0.1999828038466                   1

9 0
 s    1 1.00
       0.1999828038466                   1

10 0
 s    1 1.00
      0.13202925350056                   1

11 0
 s    1 1.00
      0.13202925350056                   1

12 0
 s    1 1.00
      0.13202925350056                   1

13 0
 s    1 1.00
      0.13202925350056                   1

14 0
 s    1 1.00
       0.1999828038466                   1

15 0
 s    1 1.00
       0.1999828038466                   1

16 0
 s    1 1.00
      0.19008710047035                   1

17 0
 s    1 1.00
      0.13202925350056                   1

18 0
 s    1 1.00
      0.13202925350056                   1

19 0
 s    1 1.00
      0.13202925350056                   1

20 0
 s    1 1.00
       0.1999828038466                   1

21 0
 s    1 1.00
       0.1999828038466                   1

22 0
 s    1 1.00
       0.1999828038466                   1

[5d]
[7f]
[9g]

[MO]
 Sym= A
 Ene=               0
 Spin= Alpha
 Occup=    1.00000
   1     -0.37209842689604
   2     -0.01378892002844
   3     -0.22944800765969
   4       0.5272550526192
   5     -0.21235837328627
   6      0.34200216704929
   7     -0.10917013615118
   8     -0.41421174931546
   9     -0.15239322403189
  10      0.21235837328699
  11     -0.52725505262073
  12      0.92243971632238
  13     -0.92243971632178
  14    -0.062962257198195
  15     0.062962257197813
  16      -0.3420021670503
  17       0.3720984268979
  18     0.013788920025957
  19      0.22944800766174
  20      0.41421174931637
  21      0.15239322403135
  22      0.10917013615059
 Sym= A
 Ene=               1
 Spin= Alpha
 Occup=    1.00000
   1    8.8340945688253e-16
   2    -8.834811041761e-16
   3    -1.7852738559761e-16
   4    4.0616259108064e-15
   5    -1.3108280917117e-15
   6    -3.8820609745762e-16
   7    -3.777464962074e-16
   8    3.1136750864466e-16
   9    6.7154072435734e-17
  10    2.8245657657729e-15
  11    -5.5996281021781e-15
  12    8.1449420718004e-15
  13    -8.4867808171198e-15
  14    -1.9932697508318e-15
  15    2.2894234282137e-15
  16    -1.8835832882296e-16
  17    -6.3258515997575e-16
  18    -1.8419023885479e-16
  19    1.8801936147458e-15
  20    6.7573849685792e-17
  21    -4.2781917881523e-16
  22    3.4658554880248e-16
 Sym= A
 Ene=               2
 Spin= Alpha
 Occup=    1.00000
   1    -0.045113046351471
   2      0.13349941412388
   3     -0.17335236664386
   4    -0.011106148793012
   5    -0.031745944953983
   6      0.32359583357171
   7      0.36771368905513
   8     0.012799297444196
   9      -0.1960340682005
  10     -0.03174594495272
  11    -0.011106148794698
  12    -0.011427204682316
  13    -0.011427204684363
  14     -0.32789561259505
  15      -0.3278956125944
  16      0.32359583357123
  17    -0.045113046351068
  18      0.13349941412338
  19     -0.17335236664306
  20     0.012799297444301
  21     -0.19603406820072
  22      0.36771368905503
