[Molden Format]
[Title]
                                                                                
[Atoms] AU
 c     1    6 -.10595270851257E+02 0.30222212009883E+01 -.39777779980000E-04
 c     2    6 -.10766683614319E+02 0.35069773699941E+00 -.15603927800000E-04
 c     3    6 -.85441761443240E+01 -.10382147359507E+01 0.43705026500000E-04
 c     4    6 -.61899111093111E+01 0.24603992785817E+00 0.67133836840000E-04
 c     5    6 -.62424388192794E+01 0.29569531444057E+01 0.45706557960000E-04
 n     6    7 -.84302815599160E+01 0.42905261764178E+01 -.68352655000000E-06
 h     7    1 -.12330558434597E+02 0.41655618232045E+01 -.98497142740000E-04
 h     8    1 -.12616310849400E+02 -.57740541361707E+00 -.38892383560000E-04
 h     9    1 -.85747678747572E+01 -.31094727109443E+01 0.78887495830000E-04
 c    10    6 -.38487464476143E+01 0.43376682217489E+01 -.17972150980000E-04
 c    11    6 -.15283200097648E+01 0.29342206700131E+01 -.52265963030000E-04
 c    12    6 -.15717798738163E+01 0.21667548702897E+00 -.19508221320000E-04
 c    13    6 -.38159940232826E+01 -.10774777621963E+01 0.25749178080000E-04
 h    14    1 0.23179820424746E+00 -.80168663757594E+00 -.17060408770000E-04
 h    15    1 -.38379904751336E+01 -.31485845899919E+01 0.18288490860000E-04
 n    16    7 -.39067030125515E+01 0.68990149497140E+01 0.22006075200000E-04
 c    17    6 -.17245743224597E+01 0.81377954054510E+01 0.39013069210000E-04
 c    18    6 0.67357670187318E+00 0.69483274377986E+01 0.29388804900000E-05
 c    19    6 0.76231947310390E+00 0.43290031915577E+01 -.49344147720000E-04
 h    20    1 0.24027150311817E+01 0.80848825876266E+01 0.14757743730000E-04
 h    21    1 0.25704082926825E+01 0.33176238436913E+01 -.94977585430000E-04
 h    22    1 -.18453970837068E+01 0.10212461538552E+02 0.86396883300000E-04
[GTO]
    1 0
 s    5 1.00
 0.12384016938000E+04 0.55173650481097E-02
 0.18629004992000E+03 0.41088828555946E-01
 0.42251176346000E+02 0.18225382126490E+00
 0.11676557932000E+02 0.46828459437429E+00
 0.35930506482000E+01 0.44575817336002E+00
 s    1 1.00
 0.40245147363000E+00 0.10000000000000E+01
 s    1 1.00
 0.13090182668000E+00 0.10000000000000E+01
 p    3 1.00
 0.94680970621000E+01 0.56888332011037E-01
 0.20103545142000E+01 0.31294059336471E+00
 0.54771004707000E+00 0.76065016509135E+00
 p    1 1.00
 0.15268613795000E+00 0.10000000000000E+01
 d    1 1.00
 0.80000000000000E+00 0.10000000000000E+01
 
    2 0
 s    5 1.00
 0.12384016938000E+04 0.55173650481097E-02
 0.18629004992000E+03 0.41088828555946E-01
 0.42251176346000E+02 0.18225382126490E+00
 0.11676557932000E+02 0.46828459437429E+00
 0.35930506482000E+01 0.44575817336002E+00
 s    1 1.00
 0.40245147363000E+00 0.10000000000000E+01
 s    1 1.00
 0.13090182668000E+00 0.10000000000000E+01
 p    3 1.00
 0.94680970621000E+01 0.56888332011037E-01
 0.20103545142000E+01 0.31294059336471E+00
 0.54771004707000E+00 0.76065016509135E+00
 p    1 1.00
 0.15268613795000E+00 0.10000000000000E+01
 d    1 1.00
 0.80000000000000E+00 0.10000000000000E+01
 
    3 0
 s    5 1.00
 0.12384016938000E+04 0.55173650481097E-02
 0.18629004992000E+03 0.41088828555946E-01
 0.42251176346000E+02 0.18225382126490E+00
 0.11676557932000E+02 0.46828459437429E+00
 0.35930506482000E+01 0.44575817336002E+00
 s    1 1.00
 0.40245147363000E+00 0.10000000000000E+01
 s    1 1.00
 0.13090182668000E+00 0.10000000000000E+01
 p    3 1.00
 0.94680970621000E+01 0.56888332011037E-01
 0.20103545142000E+01 0.31294059336471E+00
 0.54771004707000E+00 0.76065016509135E+00
 p    1 1.00
 0.15268613795000E+00 0.10000000000000E+01
 d    1 1.00
 0.80000000000000E+00 0.10000000000000E+01
 
    4 0
 s    5 1.00
 0.12384016938000E+04 0.55173650481097E-02
 0.18629004992000E+03 0.41088828555946E-01
 0.42251176346000E+02 0.18225382126490E+00
 0.11676557932000E+02 0.46828459437429E+00
 0.35930506482000E+01 0.44575817336002E+00
 s    1 1.00
 0.40245147363000E+00 0.10000000000000E+01
 s    1 1.00
 0.13090182668000E+00 0.10000000000000E+01
 p    3 1.00
 0.94680970621000E+01 0.56888332011037E-01
 0.20103545142000E+01 0.31294059336471E+00
 0.54771004707000E+00 0.76065016509135E+00
 p    1 1.00
 0.15268613795000E+00 0.10000000000000E+01
 d    1 1.00
 0.80000000000000E+00 0.10000000000000E+01
 
    5 0
 s    5 1.00
 0.12384016938000E+04 0.55173650481097E-02
 0.18629004992000E+03 0.41088828555946E-01
 0.42251176346000E+02 0.18225382126490E+00
 0.11676557932000E+02 0.46828459437429E+00
 0.35930506482000E+01 0.44575817336002E+00
 s    1 1.00
 0.40245147363000E+00 0.10000000000000E+01
 s    1 1.00
 0.13090182668000E+00 0.10000000000000E+01
 p    3 1.00
 0.94680970621000E+01 0.56888332011037E-01
 0.20103545142000E+01 0.31294059336471E+00
 0.54771004707000E+00 0.76065016509135E+00
 p    1 1.00
 0.15268613795000E+00 0.10000000000000E+01
 d    1 1.00
 0.80000000000000E+00 0.10000000000000E+01
 
    6 0
 s    5 1.00
 0.17128415853000E+04 -.54477995804909E-02
 0.25764812677000E+03 -.40627174632423E-01
 0.58458245853000E+02 -.18111962250584E+00
 0.16198367905000E+02 -.46843975563173E+00
 0.50052600809000E+01 -.44616846289231E+00
 s    1 1.00
 0.58731856571000E+00 0.10000000000000E+01
 s    1 1.00
 0.18764592253000E+00 0.10000000000000E+01
 p    3 1.00
 0.13571470233000E+02 -.58848116969522E-01
 0.29257372874000E+01 -.32024624762471E+00
 0.79927750754000E+00 -.75328226520436E+00
 p    1 1.00
 0.21954348034000E+00 0.10000000000000E+01
 d    1 1.00
 0.10000000000000E+01 0.10000000000000E+01
 
    7 0
 s    3 1.00
 0.13010701000000E+02 0.33485484812989E-01
 0.19622572000000E+01 0.23472187088125E+00
 0.44453796000000E+00 0.81377028525955E+00
 s    1 1.00
 0.12194962000000E+00 0.10000000000000E+01
 p    1 1.00
 0.80000000000000E+00 0.10000000000000E+01
 
    8 0
 s    3 1.00
 0.13010701000000E+02 0.33485484812989E-01
 0.19622572000000E+01 0.23472187088125E+00
 0.44453796000000E+00 0.81377028525955E+00
 s    1 1.00
 0.12194962000000E+00 0.10000000000000E+01
 p    1 1.00
 0.80000000000000E+00 0.10000000000000E+01
 
    9 0
 s    3 1.00
 0.13010701000000E+02 0.33485484812989E-01
 0.19622572000000E+01 0.23472187088125E+00
 0.44453796000000E+00 0.81377028525955E+00
 s    1 1.00
 0.12194962000000E+00 0.10000000000000E+01
 p    1 1.00
 0.80000000000000E+00 0.10000000000000E+01
 
   10 0
 s    5 1.00
 0.12384016938000E+04 0.55173650481097E-02
 0.18629004992000E+03 0.41088828555946E-01
 0.42251176346000E+02 0.18225382126490E+00
 0.11676557932000E+02 0.46828459437429E+00
 0.35930506482000E+01 0.44575817336002E+00
 s    1 1.00
 0.40245147363000E+00 0.10000000000000E+01
 s    1 1.00
 0.13090182668000E+00 0.10000000000000E+01
 p    3 1.00
 0.94680970621000E+01 0.56888332011037E-01
 0.20103545142000E+01 0.31294059336471E+00
 0.54771004707000E+00 0.76065016509135E+00
 p    1 1.00
 0.15268613795000E+00 0.10000000000000E+01
 d    1 1.00
 0.80000000000000E+00 0.10000000000000E+01
 
   11 0
 s    5 1.00
 0.12384016938000E+04 0.55173650481097E-02
 0.18629004992000E+03 0.41088828555946E-01
 0.42251176346000E+02 0.18225382126490E+00
 0.11676557932000E+02 0.46828459437429E+00
 0.35930506482000E+01 0.44575817336002E+00
 s    1 1.00
 0.40245147363000E+00 0.10000000000000E+01
 s    1 1.00
 0.13090182668000E+00 0.10000000000000E+01
 p    3 1.00
 0.94680970621000E+01 0.56888332011037E-01
 0.20103545142000E+01 0.31294059336471E+00
 0.54771004707000E+00 0.76065016509135E+00
 p    1 1.00
 0.15268613795000E+00 0.10000000000000E+01
 d    1 1.00
 0.80000000000000E+00 0.10000000000000E+01
 
   12 0
 s    5 1.00
 0.12384016938000E+04 0.55173650481097E-02
 0.18629004992000E+03 0.41088828555946E-01
 0.42251176346000E+02 0.18225382126490E+00
 0.11676557932000E+02 0.46828459437429E+00
 0.35930506482000E+01 0.44575817336002E+00
 s    1 1.00
 0.40245147363000E+00 0.10000000000000E+01
 s    1 1.00
 0.13090182668000E+00 0.10000000000000E+01
 p    3 1.00
 0.94680970621000E+01 0.56888332011037E-01
 0.20103545142000E+01 0.31294059336471E+00
 0.54771004707000E+00 0.76065016509135E+00
 p    1 1.00
 0.15268613795000E+00 0.10000000000000E+01
 d    1 1.00
 0.80000000000000E+00 0.10000000000000E+01
 
   13 0
 s    5 1.00
 0.12384016938000E+04 0.55173650481097E-02
 0.18629004992000E+03 0.41088828555946E-01
 0.42251176346000E+02 0.18225382126490E+00
 0.11676557932000E+02 0.46828459437429E+00
 0.35930506482000E+01 0.44575817336002E+00
 s    1 1.00
 0.40245147363000E+00 0.10000000000000E+01
 s    1 1.00
 0.13090182668000E+00 0.10000000000000E+01
 p    3 1.00
 0.94680970621000E+01 0.56888332011037E-01
 0.20103545142000E+01 0.31294059336471E+00
 0.54771004707000E+00 0.76065016509135E+00
 p    1 1.00
 0.15268613795000E+00 0.10000000000000E+01
 d    1 1.00
 0.80000000000000E+00 0.10000000000000E+01
 
   14 0
 s    3 1.00
 0.13010701000000E+02 0.33485484812989E-01
 0.19622572000000E+01 0.23472187088125E+00
 0.44453796000000E+00 0.81377028525955E+00
 s    1 1.00
 0.12194962000000E+00 0.10000000000000E+01
 p    1 1.00
 0.80000000000000E+00 0.10000000000000E+01
 
   15 0
 s    3 1.00
 0.13010701000000E+02 0.33485484812989E-01
 0.19622572000000E+01 0.23472187088125E+00
 0.44453796000000E+00 0.81377028525955E+00
 s    1 1.00
 0.12194962000000E+00 0.10000000000000E+01
 p    1 1.00
 0.80000000000000E+00 0.10000000000000E+01
 
   16 0
 s    5 1.00
 0.17128415853000E+04 -.54477995804909E-02
 0.25764812677000E+03 -.40627174632423E-01
 0.58458245853000E+02 -.18111962250584E+00
 0.16198367905000E+02 -.46843975563173E+00
 0.50052600809000E+01 -.44616846289231E+00
 s    1 1.00
 0.58731856571000E+00 0.10000000000000E+01
 s    1 1.00
 0.18764592253000E+00 0.10000000000000E+01
 p    3 1.00
 0.13571470233000E+02 -.58848116969522E-01
 0.29257372874000E+01 -.32024624762471E+00
 0.79927750754000E+00 -.75328226520436E+00
 p    1 1.00
 0.21954348034000E+00 0.10000000000000E+01
 d    1 1.00
 0.10000000000000E+01 0.10000000000000E+01
 
   17 0
 s    5 1.00
 0.12384016938000E+04 0.55173650481097E-02
 0.18629004992000E+03 0.41088828555946E-01
 0.42251176346000E+02 0.18225382126490E+00
 0.11676557932000E+02 0.46828459437429E+00
 0.35930506482000E+01 0.44575817336002E+00
 s    1 1.00
 0.40245147363000E+00 0.10000000000000E+01
 s    1 1.00
 0.13090182668000E+00 0.10000000000000E+01
 p    3 1.00
 0.94680970621000E+01 0.56888332011037E-01
 0.20103545142000E+01 0.31294059336471E+00
 0.54771004707000E+00 0.76065016509135E+00
 p    1 1.00
 0.15268613795000E+00 0.10000000000000E+01
 d    1 1.00
 0.80000000000000E+00 0.10000000000000E+01
 
   18 0
 s    5 1.00
 0.12384016938000E+04 0.55173650481097E-02
 0.18629004992000E+03 0.41088828555946E-01
 0.42251176346000E+02 0.18225382126490E+00
 0.11676557932000E+02 0.46828459437429E+00
 0.35930506482000E+01 0.44575817336002E+00
 s    1 1.00
 0.40245147363000E+00 0.10000000000000E+01
 s    1 1.00
 0.13090182668000E+00 0.10000000000000E+01
 p    3 1.00
 0.94680970621000E+01 0.56888332011037E-01
 0.20103545142000E+01 0.31294059336471E+00
 0.54771004707000E+00 0.76065016509135E+00
 p    1 1.00
 0.15268613795000E+00 0.10000000000000E+01
 d    1 1.00
 0.80000000000000E+00 0.10000000000000E+01
 
   19 0
 s    5 1.00
 0.12384016938000E+04 0.55173650481097E-02
 0.18629004992000E+03 0.41088828555946E-01
 0.42251176346000E+02 0.18225382126490E+00
 0.11676557932000E+02 0.46828459437429E+00
 0.35930506482000E+01 0.44575817336002E+00
 s    1 1.00
 0.40245147363000E+00 0.10000000000000E+01
 s    1 1.00
 0.13090182668000E+00 0.10000000000000E+01
 p    3 1.00
 0.94680970621000E+01 0.56888332011037E-01
 0.20103545142000E+01 0.31294059336471E+00
 0.54771004707000E+00 0.76065016509135E+00
 p    1 1.00
 0.15268613795000E+00 0.10000000000000E+01
 d    1 1.00
 0.80000000000000E+00 0.10000000000000E+01
 
   20 0
 s    3 1.00
 0.13010701000000E+02 0.33485484812989E-01
 0.19622572000000E+01 0.23472187088125E+00
 0.44453796000000E+00 0.81377028525955E+00
 s    1 1.00
 0.12194962000000E+00 0.10000000000000E+01
 p    1 1.00
 0.80000000000000E+00 0.10000000000000E+01
 
   21 0
 s    3 1.00
 0.13010701000000E+02 0.33485484812989E-01
 0.19622572000000E+01 0.23472187088125E+00
 0.44453796000000E+00 0.81377028525955E+00
 s    1 1.00
 0.12194962000000E+00 0.10000000000000E+01
 p    1 1.00
 0.80000000000000E+00 0.10000000000000E+01
 
   22 0
 s    3 1.00
 0.13010701000000E+02 0.33485484812989E-01
 0.19622572000000E+01 0.23472187088125E+00
 0.44453796000000E+00 0.81377028525955E+00
 s    1 1.00
 0.12194962000000E+00 0.10000000000000E+01
 p    1 1.00
 0.80000000000000E+00 0.10000000000000E+01
 
[MO]
 Sym=     1a   
 Ene= -.14387955095026E+02
 Spin= Alpha
 Occup= 2.000000
     1 -.26170153441517E-03
     2 -.55584837055248E-03
     3 -.20597132686329E-01
     4 0.92407180570275E-03
     5 0.84134260423711E-03
     6 0.70267405149078E-08
     7 -.10120458775873E-01
     8 0.77341748879926E-03
     9 -.26235488981245E-06
    10 0.43205700315645E-03
    11 0.10208052297337E-04
    12 -.44226505545378E-03
    13 0.99988051576226E-03
    14 0.11557449197103E-07
    15 0.16609714976696E-07
    16 0.52787424298656E-04
    17 -.10158223381063E-02
    18 0.17824051304059E-01
    19 -.97371601267863E-04
    20 0.54497153533037E-04
    21 -.66405850766068E-08
    22 0.95481897622961E-02
    23 0.26595944502336E-02
    24 0.18203894690594E-06
    25 0.73168049305295E-05
    26 0.92891337719951E-05
    27 -.16605938702525E-04
    28 0.11596189702869E-03
    29 -.12271836939844E-08
    30 0.47421895810340E-08
    31 0.44630234011724E-04
    32 -.65648336987672E-03
    33 -.22139476985094E-01
    34 -.10530944268658E-03
    35 0.20736144742557E-04
    36 -.10023841512862E-07
    37 -.10245679834294E-02
    38 -.74389881545140E-02
    39 0.95670618873632E-07
    40 -.50136423448195E-05
    41 -.11386667742068E-04
    42 0.16400310086887E-04
    43 0.16319247003059E-04
    44 -.17401440387696E-08
    45 0.43314241884904E-08
    46 0.62703417849203E-04
    47 -.12479472911633E-02
    48 0.10675048821068E-01
    49 0.15311334694811E-03
    50 -.52552503413293E-04
    51 0.11215239164426E-07
    52 -.14931846613283E-01
    53 -.46399863323942E-03
    54 -.15228258748494E-06
    55 0.24592483578924E-04
    56 0.15009961645396E-04
    57 -.39602445224320E-04
    58 -.24665179487537E-03
    59 -.14583694852658E-08
    60 -.12425181649082E-08
    61 -.19011458391720E-03
    62 -.12275210688145E-02
    63 -.88473355193991E-02
    64 -.10431997053812E-02
    65 0.64887415837784E-03
    66 -.18796975301808E-07
    67 0.30707442146216E-01
    68 -.60538651486951E-02
    69 0.80806747113071E-07
    70 0.39196727395245E-03
    71 -.83827885722277E-05
    72 -.38358448538022E-03
    73 -.76662009060447E-03
    74 -.40533293500144E-08
    75 -.98866939251850E-08
    76 0.90997434681903E+00
    77 -.43289664478290E-01
    78 0.59763393477999E-01
    79 0.90230196685525E-04
    80 -.33546202180885E-02
    81 0.51381655554284E-07
    82 0.42906366512247E-02
    83 -.13616831316920E-01
    84 0.29266422167393E-06
    85 -.45470150534391E-03
    86 0.25513004068378E-03
    87 0.19957146466013E-03
    88 -.17024593194632E-03
    89 -.10749370013146E-07
    90 -.89820405091877E-08
    91 -.18664541109147E-04
    92 -.53198017977662E-03
    93 0.33921788452700E-03
    94 0.84458803232346E-04
    95 0.71392750942181E-08
    96 0.72925320606294E-03
    97 0.10018584006298E-02
    98 -.14108790384192E-03
    99 0.26085900087382E-04
   100 -.74152650450269E-08
   101 -.24574722881997E-03
   102 0.75959893459589E-04
   103 -.66731151691601E-05
   104 0.63985368953482E-04
   105 -.34292867365198E-08
   106 0.66530845278095E-04
   107 0.65858818265517E-03
   108 -.90702908531987E-03
   109 -.10036068676949E-03
   110 -.48506223544179E-03
   111 -.58723487964029E-08
   112 0.78234042797414E-02
   113 0.22832944378876E-01
   114 -.23129046228220E-06
   115 0.23399137867414E-03
   116 -.40064532166690E-03
   117 0.16665394299276E-03
   118 0.29096079029919E-04
   119 0.89533160992671E-08
   120 0.17092007277808E-07
   121 -.38755616310904E-04
   122 0.85593619236306E-03
   123 -.13286599699700E-02
   124 -.13996882943585E-03
   125 0.17308601718697E-03
   126 0.11539101261871E-07
   127 -.34534539551079E-02
   128 -.80133800597554E-02
   129 0.11103605160676E-07
   130 0.94170991007073E-04
   131 -.14341148196490E-03
   132 0.49240490957823E-04
   133 0.96907899657473E-04
   134 0.16579935074563E-09
   135 0.30671336559429E-08
   136 0.27717345118227E-04
   137 -.64811185794733E-03
   138 -.50197559730616E-02
   139 -.25527762992683E-04
   140 -.17223541861987E-03
   141 0.15374182703485E-07
   142 -.15292991538938E-03
   143 -.57030407369083E-03
   144 0.67614325696886E-08
   145 0.17009917185559E-04
   146 0.13474410933925E-04
   147 -.30484328119483E-04
   148 -.18472721287177E-04
   149 -.10579744305158E-08
   150 0.44043175724260E-08
   151 -.56769193056650E-04
   152 0.11960995929768E-02
   153 0.44375957273718E-02
   154 -.26027897832695E-03
   155 0.16426485497348E-03
   156 0.25047823852948E-07
   157 0.17037710753913E-03
   158 0.66231109668591E-03
   159 0.54189353896789E-07
   160 -.67059814014671E-04
   161 0.42073934517018E-05
   162 0.62852420562970E-04
   163 0.10143154224367E-04
   164 -.55982424179776E-08
   165 0.52090793739012E-08
   166 0.16653827986471E-03
   167 0.61149598881510E-03
   168 -.13847173139802E-04
   169 -.16531032213971E-04
   170 0.10433955646776E-09
   171 -.67457523972141E-04
   172 -.41671985741468E-03
   173 -.93791515150089E-04
   174 -.45056608745787E-04
   175 -.24794674904301E-08
   176 -.38627014731605E+00
   177 0.19176530112359E-01
   178 -.31425549888731E-01
   179 -.10714976650513E-02
   180 0.89937369746359E-03
   181 0.52561221182538E-07
   182 -.40260609600802E-02
   183 0.72616745883492E-02
   184 0.30691132730816E-06
   185 0.58509269771272E-04
   186 -.61971509647542E-05
   187 -.52312118806518E-04
   188 0.22984849116927E-03
   189 0.69220032625078E-08
   190 -.60407099557765E-08
   191 0.11432459356731E-03
   192 0.36352433038132E-03
   193 0.75491923203820E-02
   194 0.55508477723402E-03
   195 0.11473641197024E-03
   196 -.11270755990517E-07
   197 -.17300655872069E-02
   198 -.30299467580359E-02
   199 -.75765148848539E-07
   200 -.41496366771978E-03
   201 0.18341215765217E-03
   202 0.23155151006761E-03
   203 -.30085593107635E-03
   204 0.28992608731071E-08
   205 0.63714018970279E-09
   206 -.29432107375103E-04
   207 0.50702188089958E-03
   208 -.72476905162557E-02
   209 -.38562151449258E-04
   210 -.50731537874367E-04
   211 -.64708475999960E-08
   212 0.26938271448642E-02
   213 0.30320562593625E-02
   214 0.62209737670156E-07
   215 -.39923715442183E-04
   216 0.27315609141755E-04
   217 0.12608106300428E-04
   218 -.24824044584519E-04
   219 -.16539398638337E-08
   220 0.10560047526659E-08
   221 -.27709083794854E-04
   222 0.54931020047666E-03
   223 0.88761471525821E-02
   224 -.71612560357166E-04
   225 -.42823107580812E-04
   226 -.11782180116130E-07
   227 -.24732439010852E-02
   228 0.16346994796834E-02
   229 0.70699724791746E-07
   230 -.80478178655133E-05
   231 -.16347348797794E-04
   232 0.24395166663307E-04
   233 -.23954352472832E-04
   234 -.18164169219209E-08
   235 0.16720381569813E-08
   236 -.29749116781298E-03
   237 -.45255476793830E-03
   238 -.11682068937120E-05
   239 -.55744264220235E-04
   240 -.37651882670088E-08
   241 0.88070178012454E-04
   242 -.93453770864311E-04
   243 0.16342816133310E-04
   244 -.51297591508106E-04
   245 -.42659572160726E-08
   246 -.91533426560173E-04
   247 0.13912794971340E-04
   248 0.10555663615557E-03
   249 0.13158889063643E-03
   250 0.33283118530365E-08
 Sym=     2a   
 Ene= -.14387861383654E+02
 Spin= Alpha
 Occup= 2.000000
     1 -.10647171485362E-03
     2 -.52233889151571E-04
     3 -.10461701793338E-01
     4 0.41387285992341E-03
     5 0.26243412523731E-03
     6 0.17287390415316E-07
     7 -.54598617418754E-02
     8 0.76898426398262E-03
     9 -.13198704948099E-06
    10 0.17027154589632E-03
    11 -.45556454324663E-04
    12 -.12471509157165E-03
    13 0.38866204668628E-03
    14 0.65222611179908E-08
    15 0.12905907173670E-07
    16 0.12298428691513E-04
    17 -.32195854974592E-03
    18 0.80223215319709E-02
    19 -.97985464994410E-05
    20 0.67984061588145E-04
    21 0.25539236544913E-08
    22 0.41688351271002E-02
    23 0.15805275691839E-02
    24 0.64740725551043E-07
    25 -.42071025958490E-05
    26 0.32113180525458E-05
    27 0.99578454330319E-06
    28 0.53894809845749E-04
    29 -.13271951213248E-08
    30 0.13002726698071E-08
    31 0.63057879997793E-05
    32 0.11141603154422E-03
    33 -.10145874923501E-01
    34 -.40659852720449E-05
    35 0.79879188906029E-04
    36 0.84882677608820E-08
    37 -.13108938727352E-02
    38 -.34415578306483E-02
    39 0.82561877311708E-08
    40 -.51663262874485E-04
    41 -.46150861883175E-06
    42 0.52124771493317E-04
    43 0.56715166441197E-05
    44 -.16017128092514E-08
    45 0.55381411530214E-09
    46 0.91397474989286E-05
    47 -.60059792427502E-04
    48 0.91533585568615E-02
    49 0.43763826393974E-04
    50 0.24475529238683E-03
    51 -.40565679094291E-08
    52 -.29806519307913E-02
    53 -.19466199248727E-02
    54 -.10203663474286E-06
    55 0.95584920229713E-05
    56 -.39443435154969E-04
    57 0.29884943131997E-04
    58 -.14584942517313E-04
    59 0.38731561893330E-08
    60 -.78478373307709E-09
    61 -.10111151053985E-03
    62 -.32445615186528E-03
    63 -.10484668060650E-01
    64 -.40448793470849E-03
    65 0.44712338192963E-03
    66 -.73486491926987E-08
    67 -.22913153108736E-02
    68 0.45638546083550E-03
    69 0.28986899147003E-06
    70 0.89875406482998E-04
    71 0.67614601023154E-04
    72 -.15749000750615E-03
    73 -.31585721612781E-03
    74 0.23948518683393E-07
    75 -.11171950431786E-07
    76 0.38643241404337E+00
    77 -.17231591645187E-01
    78 0.16660076726702E-01
    79 -.25458297986277E-03
    80 -.14902499383429E-02
    81 -.11997175465382E-07
    82 -.17027418549161E-02
    83 -.38480261340425E-02
    84 -.11973206797404E-06
    85 -.20809292705697E-03
    86 0.76624200627820E-04
    87 0.13146872642915E-03
    88 0.35204820473501E-04
    89 -.99177098312024E-08
    90 0.48446945486314E-08
    91 -.15088608619847E-03
    92 -.53095895643004E-03
    93 0.11134551114238E-03
    94 0.50861612663236E-04
    95 0.15807658220197E-08
    96 0.32697659282111E-03
    97 0.38609439538273E-03
    98 -.75890940237386E-04
    99 -.11688427356883E-04
   100 -.16618944833853E-08
   101 -.12759156141647E-03
   102 -.55685579118325E-04
   103 0.45131721812005E-04
   104 0.88411907859648E-05
   105 0.34698627457419E-08
   106 -.20486069606882E-03
   107 -.10860746694715E-02
   108 -.13682279790248E-01
   109 -.15993786150966E-03
   110 0.12669608971815E-02
   111 0.15621536431749E-07
   112 -.64979215504790E-02
   113 -.18985047925640E-01
   114 -.19179147822276E-06
   115 -.45391204897623E-03
   116 0.83372254591897E-03
   117 -.37981049694273E-03
   118 -.23089601624847E-03
   119 -.41466158659301E-08
   120 0.19736719062459E-07
   121 0.50145110702163E-04
   122 -.91004040606890E-03
   123 0.13985723514419E-01
   124 -.18996879716050E-03
   125 -.49328983470207E-04
   126 -.15204898478722E-08
   127 0.77617006225735E-02
   128 0.99629941483261E-02
   129 0.93850186848855E-07
   130 -.14389359632426E-03
   131 0.14985988482319E-03
   132 -.59662884989221E-05
   133 -.69544811377399E-04
   134 0.67527629579971E-09
   135 0.24465700918982E-08
   136 -.52989863299404E-04
   137 0.10502518759434E-02
   138 0.11894048578714E-02
   139 -.43390841329545E-04
   140 0.26431658123271E-03
   141 -.15610859840556E-07
   142 -.11081942222415E-02
   143 -.32807427557188E-03
   144 -.29880860049668E-07
   145 0.88905253073154E-05
   146 -.67799742504677E-04
   147 0.58909217197361E-04
   148 -.63155715369747E-04
   149 0.17687669838268E-08
   150 -.39349960926163E-08
   151 -.18871282265678E-04
   152 0.30549534433482E-03
   153 -.26367723757658E-02
   154 -.36488591613887E-04
   155 0.77684186083175E-04
   156 0.27012300056497E-08
   157 0.99636451259181E-03
   158 0.46273439646535E-03
   159 0.13697259484111E-07
   160 -.68724039025031E-04
   161 0.47507652526839E-04
   162 0.21216386498193E-04
   163 -.16417883464915E-06
   164 0.76568252466853E-10
   165 0.10134487035238E-08
   166 0.75505022209998E-04
   167 0.33225609530783E-04
   168 0.10947667274908E-03
   169 0.67381646200559E-04
   170 0.86258963545269E-09
   171 0.16982801231430E-03
   172 0.44846424788891E-03
   173 -.66554823646037E-04
   174 -.41299808134202E-04
   175 -.56286816478523E-09
   176 0.91004266584296E+00
   177 -.42466112497555E-01
   178 0.53502412067024E-01
   179 0.30040162249884E-02
   180 -.15994401424027E-02
   181 -.42759294442371E-07
   182 0.96997230170296E-02
   183 -.76436778686564E-02
   184 -.16521708186255E-06
   185 -.12609701567652E-04
   186 -.22066661678141E-03
   187 0.23327631834906E-03
   188 -.39552168756696E-03
   189 -.62127001766362E-08
   190 -.66322725411242E-08
   191 -.25838685605791E-03
   192 -.42328274253874E-03
   193 -.21828264632471E-01
   194 -.11397924540510E-02
   195 -.42597977224638E-03
   196 -.55587058165181E-08
   197 0.45450565051410E-02
   198 0.10028228763673E-01
   199 0.19355356069777E-06
   200 0.81819643659307E-03
   201 -.42126818907014E-03
   202 -.39692824752293E-03
   203 0.70982780562279E-03
   204 0.10341417933456E-07
   205 -.40969423530100E-08
   206 0.45531948716923E-04
   207 -.93742250318767E-03
   208 0.18144747822150E-01
   209 -.37712688307975E-04
   210 0.10815811279618E-03
   211 0.29812671595659E-08
   212 -.74049407611391E-02
   213 -.68416748897086E-02
   214 -.98283943705415E-07
   215 0.96683692574828E-04
   216 -.85866872660332E-04
   217 -.10816819914496E-04
   218 0.56203216616810E-04
   219 0.15226337522060E-08
   220 -.31001872989048E-08
   221 0.35560081039951E-04
   222 -.37617531994891E-03
   223 -.22669027096211E-01
   224 -.24078592988335E-04
   225 0.10180435997824E-03
   226 0.13645942958628E-08
   227 0.74381233395899E-02
   228 -.23935521344596E-02
   229 -.12079284137210E-06
   230 -.47503834949525E-05
   231 -.44147631386995E-04
   232 0.48898014881948E-04
   233 -.85691886847290E-05
   234 0.21329655311049E-08
   235 -.32110343204994E-08
   236 0.74183109394094E-03
   237 0.97416203296818E-03
   238 0.68160767970604E-04
   239 0.13682555048937E-03
   240 0.36035830733720E-08
   241 -.26198670089144E-03
   242 0.13989597206549E-04
   243 -.57767706380785E-04
   244 0.13865359346677E-05
   245 0.33789778994453E-09
   246 -.12116846017896E-03
   247 -.75135923022754E-03
   248 -.24052816314277E-03
   249 -.22557549327122E-03
   250 -.33627113269123E-08
 Sym=     3a   
 Ene= -.10280947231824E+02
 Spin= Alpha
 Occup= 2.000000
     1 0.51415938637291E-02
     2 0.11168163208019E-02
     3 0.80802354208788E-02
     4 0.47018656372709E-03
     5 0.24388743196540E-03
     6 0.69321328176495E-08
     7 0.25657980977241E-02
     8 -.49758521772794E-02
     9 0.13042602237483E-06
    10 0.16069640884695E-03
    11 -.77524430587765E-04
    12 -.83171978259189E-04
    13 -.58896529932315E-04
    14 0.89476458091243E-08
    15 -.22503618088654E-08
    16 0.45115391291747E-04
    17 -.78157779069417E-04
    18 -.14032245653007E-01
    19 -.52394174399299E-04
    20 0.20589832375830E-05
    21 -.32867677735825E-08
    22 -.41632841088313E-02
    23 -.27964724442014E-02
    24 -.72262608426843E-07
    25 0.24539043113808E-04
    26 -.31659591393570E-04
    27 0.71205482797615E-05
    28 0.21605299294591E-04
    29 0.23984314294814E-09
    30 0.17522885909409E-08
    31 0.14438947213796E-02
    32 0.67539894170428E-03
    33 0.15747645293244E-01
    34 0.26198783869445E-03
    35 0.16789981156058E-03
    36 0.67021796298426E-08
    37 0.17739538335043E-03
    38 0.83859794637066E-02
    39 -.32350477144324E-07
    40 -.64519509822422E-04
    41 0.11728180047741E-03
    42 -.52762290654985E-04
    43 0.75775389059914E-04
    44 0.29923801196335E-08
    45 0.30583922005215E-08
    46 0.49711862530607E-02
    47 -.16416833937273E-02
    48 -.89705955210826E-02
    49 -.73176540734313E-03
    50 -.93647717564046E-03
    51 0.10904205034885E-07
    52 0.18669518433868E-01
    53 -.99609442328176E-02
    54 0.77517037996415E-07
    55 0.31561088826670E-03
    56 -.57140177381875E-03
    57 0.25579088555206E-03
    58 0.59909265216277E-04
    59 -.17076820486042E-07
    60 0.10377201369398E-07
    61 0.55427717763100E+00
    62 0.25438504335500E-01
    63 0.13692591680113E-01
    64 -.13207574107048E-02
    65 -.57271347306840E-03
    66 -.12389859068141E-07
    67 -.12191322855111E-01
    68 -.62096218043591E-02
    69 -.15299073469943E-06
    70 0.23670030358506E-04
    71 0.29794389937591E-03
    72 -.32161392973441E-03
    73 -.86226885222777E-03
    74 0.36762063242444E-07
    75 -.28670863803320E-08
    76 0.39717770245891E-04
    77 0.14929551974185E-02
    78 -.15546108091122E-01
    79 0.59181724650946E-03
    80 -.70928265992045E-04
    81 0.39587620877726E-08
    82 -.41625854578710E-02
    83 0.71972779700032E-02
    84 -.15746375212889E-06
    85 -.32348344452341E-03
    86 -.91520086813433E-04
    87 0.41500353133685E-03
    88 0.47649621770720E-03
    89 -.20961458308267E-07
    90 0.11217365205108E-07
    91 0.32019317008818E-03
    92 0.71323032524134E-03
    93 -.79655716373176E-04
    94 0.22469657470775E-03
    95 -.57280241094438E-08
    96 -.14770176691793E-03
    97 0.29597338343948E-04
    98 0.17611770915737E-04
    99 0.54186530969914E-04
   100 0.15924959610821E-08
   101 0.50162714451595E-03
   102 0.11388298077675E-02
   103 0.81389958976664E-05
   104 -.13311707827034E-03
   105 -.89518898119002E-08
   106 0.81854608447423E+00
   107 0.39625796668525E-01
   108 0.30349057365096E-03
   109 0.99947757158926E-03
   110 0.73540936968344E-03
   111 0.24634189118816E-07
   112 0.25816344458508E-02
   113 0.23289784993401E-01
   114 0.25883777009241E-06
   115 -.17858246219587E-03
   116 0.98223282092453E-03
   117 -.80365035872866E-03
   118 -.35751344080451E-03
   119 -.11194279523872E-07
   120 0.39851731849742E-07
   121 0.81185814645187E-02