[Molden Format]
[Atoms] Angs
 h       1       1 -2.276799836700e-01 -8.251199408100e-01 -2.666099808740e+00
 o       2       8  1.857299866800e-01 -1.471899894400e-01 -3.257889766290e+00
 h       3       1  3.000999785000e-02  7.143899487500e-01 -2.795909799430e+00
[GTO]
1
 s       3
      3.42525091e+00      1.54328971e-01
      6.23913730e-01      5.35328142e-01
      1.68855400e-01      4.44634542e-01

2
 s       3
      1.30709320e+02      1.54328969e-01
      2.38088610e+01      5.35328136e-01
      6.44360830e+00      4.44634536e-01
 s       3
      5.03315130e+00     -9.99672287e-02
      1.16959610e+00      3.99512825e-01
      3.80389000e-01      7.00115461e-01
 p       3
      5.03315130e+00      1.55916268e-01
      1.16959610e+00      6.07683714e-01
      3.80389000e-01      3.91957386e-01

3
 s       3
      3.42525091e+00      1.54328971e-01
      6.23913730e-01      5.35328142e-01
      1.68855400e-01      4.44634542e-01


[MO]
 Ene=  -20.670655
 Spin=  Alpha
 Occup=  2.000
   1    0.0036899133828184
   2   -0.9959176413220344
   3   -0.0183172778002154
   4    0.0015345389757505
   5   -0.0004979100417247
   6   -0.0028418542248494
   7    0.0036930107903404
 Ene=   -1.286431
 Spin=  Alpha
 Occup=  2.000
   1    0.1495759721793756
   2   -0.2311142874981396
   3    0.8563567007093017
   4   -0.0499194843749792
   5    0.0162256375555481
   6    0.0924533049599886
   7    0.1497112879371187
 Ene=   -0.597072
 Spin=  Alpha
 Occup=  2.000
   1   -0.4658543066470799
   2    0.0000610737477450
   3   -0.0003469092536992
   4    0.0957043472120596
   5    0.5726165110675420
   6   -0.0480280422402034
   7    0.4659233119436031
 Ene=   -0.437899
 Spin=  Alpha
 Occup=  2.000
   1   -0.3185033584861147
   2   -0.0990193684640316
   3    0.5372290571242840
   4    0.3509973771937671
   5   -0.1132998955522362
   6   -0.6498957199485202
   7   -0.3182121447637333
 Ene=   -0.369384
 Spin=  Alpha
 Occup=  2.000
   1   -0.0000000000000039
   2   -0.0000000000000018
   3    0.0000000000000088
   4    0.8673842207444071
   5   -0.1041555228226312
   6    0.4866171397198854
   7   -0.0000000000000037
 Ene=    0.603242
 Spin=  Alpha
 Occup=  0.000
   1   -0.7653837956126807
   2   -0.1215163763074611
   3    0.8106445684139869
   4   -0.3593908507101768
   5    0.1149399844830506
   6    0.6652079442768917
   7   -0.7636528938431376
 Ene=    0.753849
 Spin=  Alpha
 Occup=  0.000
   1   -0.7980781825723487
   2    0.0001777971894841
   3   -0.0013193561427122
   4   -0.1617213456086019
   5   -0.9695891948725186
   6    0.0807338472416897
   7    0.8002576939826362
